50
Properties=species:S:1:pos:R:3:move_mask:L:1:forces:R:3 energy=147.68751210984976 pbc="F F F"
H        0.70558588       0.98067513      -0.58939131  F       0.29881520       0.33565597       0.41920576
H        1.05318014       1.67293960       0.53241136  F      -2.93540706      -3.14403072      -3.84898819
H       -0.60320544      -0.05754640      -1.54971299  F       2.63521794       2.80804630       3.42786352
Li      -3.49415532      -0.03542543      -0.54742946  T       0.00037879       0.00012023      -0.00015807
H        0.31705720       0.73085126      -1.04106706  T       0.00037874       0.00002102      -0.00005678
H        0.67408534       1.85754037       0.04878389  T       0.00010014      -0.00024737      -0.00010801
H        1.04252129       1.03748025      -0.22891745  T       0.00013729       0.00005263       0.00004074
Li      -1.89632174      -1.79232592       1.41640530  T      -0.00018981       0.00000296      -0.00015190
H        0.92284613       1.37891153       0.61392599  T      -0.00042088      -0.00019740       0.00038042
He       0.29074894      -2.86044211       4.70592668  T      -0.00017966      -0.00019730       0.00017686
Li      -2.53837367       0.01159392       2.58114228  T      -0.00004916       0.00014087       0.00037452
Li      -2.46080769       2.70879460       2.18073795  T      -0.00002650       0.00057637      -0.00010260
He      -1.90339138       6.00088573       2.87947572  T       0.00004291       0.00013931       0.00000848
H        0.61024829       0.29959366       0.55266110  T       0.00009501       0.00010426      -0.00002023
H        0.85770933       0.81903798       0.31956511  T      -0.00024361      -0.00047200       0.00015159
Li      -2.77300556       0.19131792       2.57758844  T      -0.00011840      -0.00006987       0.00034408
He      -3.24160135       1.76986267       5.59738737  T      -0.00017741       0.00011712       0.00003144
He      -3.25146727      -2.48758750       3.55559727  T       0.00029809      -0.00005391      -0.00024852
H        0.99165319       1.06567382      -0.54943234  T       0.00037621      -0.00036639      -0.00009709
He       1.62590712      -3.05706950       4.52092803  T      -0.00012568      -0.00016321       0.00011066
He      -2.95112407      -4.10838209       0.40102456  T       0.00028326       0.00004604      -0.00003060
Li      -3.75039254       2.12639366      -1.06768153  T      -0.00005621       0.00016189       0.00022987
Li      -2.68787229       0.79807938       2.70166826  T      -0.00051218       0.00007945       0.00014206
Li      -3.45653469       1.79777346       1.35254937  T       0.00002872       0.00030505       0.00020585
He      -4.31650179       1.25633976       3.89436754  T      -0.00019327      -0.00005999       0.00014891
H        0.64428365       1.86184884      -0.31478104  T       0.00015490       0.00005940       0.00000927
Li      -3.33478634       3.19177764       0.46949978  T       0.00018340       0.00026990       0.00008853
He      -2.86729126       5.22040668      -3.73504103  T       0.00011375       0.00029771      -0.00009025
H        0.16965043       1.23657640      -1.40693124  T       0.00036661      -0.00059514       0.00001975
He      -4.12251603       2.19115246       3.73407683  T       0.00034162      -0.00007330       0.00000503
H        0.26771449       0.49192937       0.30567083  T       0.00016280       0.00007488       0.00022273
H        0.64464198       1.63813828      -0.29421332  T      -0.00013076      -0.00021177      -0.00028355
Li      -3.52060170       0.01052974       1.37956280  T       0.00032181      -0.00003273       0.00019157
H       -0.15717023       1.82801316      -0.83731635  T       0.00014346      -0.00002874       0.00004208
H        0.18488177       1.35347492      -0.58540042  T       0.00013187      -0.00002552       0.00000134
Li      -3.26134113       1.70200634       1.84790997  T      -0.00027841      -0.00004145      -0.00000283
H        0.70773674       0.63802565      -0.13435263  T      -0.00003509      -0.00005852      -0.00023508
H        0.52797154       1.68731251      -0.42091890  T       0.00027777       0.00011242      -0.00019960
He       0.68821559      -2.27128412       4.03024379  T       0.00024952       0.00032202       0.00052569
He      -3.77576555       4.42483422       3.94062112  T      -0.00031456      -0.00051612      -0.00004467
Li      -2.08806965       1.09726436       3.12790079  T      -0.00018770       0.00031999       0.00034942
He      -4.51358821      -1.05571761      -3.10014018  T      -0.00019501      -0.00011735      -0.00059035
He      -1.55396612      -2.27927768       4.81791935  T       0.00031846      -0.00014991      -0.00020321
He      -4.96826412       3.83973944       2.61463751  T      -0.00028142      -0.00036214       0.00033380
He      -3.80355351      -3.31740782      -1.93221586  T       0.00043858       0.00044448       0.00021187
He      -3.74355531       3.82419855       4.71060129  T      -0.00033225       0.00022045       0.00005746
H        0.55379246       0.73743739      -0.79764762  T       0.00016912       0.00027497      -0.00002902
Li      -3.55835783      -0.55243429       1.15075494  T      -0.00016543       0.00001052       0.00015528
H        1.02933428       0.92705918      -0.17855565  T       0.00011679      -0.00001246      -0.00014129
Li      -3.36950392      -1.50692282       0.01286392  T      -0.00002231       0.00010707       0.00015330
50
Properties=species:S:1:pos:R:3:move_mask:L:1:forces:R:3 energy=147.68751210984976 pbc="F F F"
H        0.70558588       0.98067513      -0.58939131  F       0.29881520       0.33565597       0.41920576
H        1.05318014       1.67293960       0.53241136  F      -2.93540706      -3.14403072      -3.84898819
H       -0.60320544      -0.05754640      -1.54971299  F       2.63521794       2.80804630       3.42786352
Li      -3.49415532      -0.03542543      -0.54742946  T       0.00037879       0.00012023      -0.00015807
H        0.31705720       0.73085126      -1.04106706  T       0.00037874       0.00002102      -0.00005678
H        0.67408534       1.85754037       0.04878389  T       0.00010014      -0.00024737      -0.00010801
H        1.04252129       1.03748025      -0.22891745  T       0.00013729       0.00005263       0.00004074
Li      -1.89632174      -1.79232592       1.41640530  T      -0.00018981       0.00000296      -0.00015190
H        0.92284613       1.37891153       0.61392599  T      -0.00042088      -0.00019740       0.00038042
He       0.29074894      -2.86044211       4.70592668  T      -0.00017966      -0.00019730       0.00017686
Li      -2.53837367       0.01159392       2.58114228  T      -0.00004916       0.00014087       0.00037452
Li      -2.46080769       2.70879460       2.18073795  T      -0.00002650       0.00057637      -0.00010260
He      -1.90339138       6.00088573       2.87947572  T       0.00004291       0.00013931       0.00000848
H        0.61024829       0.29959366       0.55266110  T       0.00009501       0.00010426      -0.00002023
H        0.85770933       0.81903798       0.31956511  T      -0.00024361      -0.00047200       0.00015159
Li      -2.77300556       0.19131792       2.57758844  T      -0.00011840      -0.00006987       0.00034408
He      -3.24160135       1.76986267       5.59738737  T      -0.00017741       0.00011712       0.00003144
He      -3.25146727      -2.48758750       3.55559727  T       0.00029809      -0.00005391      -0.00024852
H        0.99165319       1.06567382      -0.54943234  T       0.00037621      -0.00036639      -0.00009709
He       1.62590712      -3.05706950       4.52092803  T      -0.00012568      -0.00016321       0.00011066
He      -2.95112407      -4.10838209       0.40102456  T       0.00028326       0.00004604      -0.00003060
Li      -3.75039254       2.12639366      -1.06768153  T      -0.00005621       0.00016189       0.00022987
Li      -2.68787229       0.79807938       2.70166826  T      -0.00051218       0.00007945       0.00014206
Li      -3.45653469       1.79777346       1.35254937  T       0.00002872       0.00030505       0.00020585
He      -4.31650179       1.25633976       3.89436754  T      -0.00019327      -0.00005999       0.00014891
H        0.64428365       1.86184884      -0.31478104  T       0.00015490       0.00005940       0.00000927
Li      -3.33478634       3.19177764       0.46949978  T       0.00018340       0.00026990       0.00008853
He      -2.86729126       5.22040668      -3.73504103  T       0.00011375       0.00029771      -0.00009025
H        0.16965043       1.23657640      -1.40693124  T       0.00036661      -0.00059514       0.00001975
He      -4.12251603       2.19115246       3.73407683  T       0.00034162      -0.00007330       0.00000503
H        0.26771449       0.49192937       0.30567083  T       0.00016280       0.00007488       0.00022273
H        0.64464198       1.63813828      -0.29421332  T      -0.00013076      -0.00021177      -0.00028355
Li      -3.52060170       0.01052974       1.37956280  T       0.00032181      -0.00003273       0.00019157
H       -0.15717023       1.82801316      -0.83731635  T       0.00014346      -0.00002874       0.00004208
H        0.18488177       1.35347492      -0.58540042  T       0.00013187      -0.00002552       0.00000134
Li      -3.26134113       1.70200634       1.84790997  T      -0.00027841      -0.00004145      -0.00000283
H        0.70773674       0.63802565      -0.13435263  T      -0.00003509      -0.00005852      -0.00023508
H        0.52797154       1.68731251      -0.42091890  T       0.00027777       0.00011242      -0.00019960
He       0.68821559      -2.27128412       4.03024379  T       0.00024952       0.00032202       0.00052569
He      -3.77576555       4.42483422       3.94062112  T      -0.00031456      -0.00051612      -0.00004467
Li      -2.08806965       1.09726436       3.12790079  T      -0.00018770       0.00031999       0.00034942
He      -4.51358821      -1.05571761      -3.10014018  T      -0.00019501      -0.00011735      -0.00059035
He      -1.55396612      -2.27927768       4.81791935  T       0.00031846      -0.00014991      -0.00020321
He      -4.96826412       3.83973944       2.61463751  T      -0.00028142      -0.00036214       0.00033380
He      -3.80355351      -3.31740782      -1.93221586  T       0.00043858       0.00044448       0.00021187
He      -3.74355531       3.82419855       4.71060129  T      -0.00033225       0.00022045       0.00005746
H        0.55379246       0.73743739      -0.79764762  T       0.00016912       0.00027497      -0.00002902
Li      -3.55835783      -0.55243429       1.15075494  T      -0.00016543       0.00001052       0.00015528
H        1.02933428       0.92705918      -0.17855565  T       0.00011679      -0.00001246      -0.00014129
Li      -3.36950392      -1.50692282       0.01286392  T      -0.00002231       0.00010707       0.00015330
50
Properties=species:S:1:pos:R:3:move_mask:L:1:forces:R:3 energy=147.68751210984976 pbc="F F F"
H        0.70558588       0.98067513      -0.58939131  F       0.29881520       0.33565597       0.41920576
H        1.05318014       1.67293960       0.53241136  F      -2.93540706      -3.14403072      -3.84898819
H       -0.60320544      -0.05754640      -1.54971299  F       2.63521794       2.80804630       3.42786352
Li      -3.49415532      -0.03542543      -0.54742946  T       0.00037879       0.00012023      -0.00015807
H        0.31705720       0.73085126      -1.04106706  T       0.00037874       0.00002102      -0.00005678
H        0.67408534       1.85754037       0.04878389  T       0.00010014      -0.00024737      -0.00010801
H        1.04252129       1.03748025      -0.22891745  T       0.00013729       0.00005263       0.00004074
Li      -1.89632174      -1.79232592       1.41640530  T      -0.00018981       0.00000296      -0.00015190
H        0.92284613       1.37891153       0.61392599  T      -0.00042088      -0.00019740       0.00038042
He       0.29074894      -2.86044211       4.70592668  T      -0.00017966      -0.00019730       0.00017686
Li      -2.53837367       0.01159392       2.58114228  T      -0.00004916       0.00014087       0.00037452
Li      -2.46080769       2.70879460       2.18073795  T      -0.00002650       0.00057637      -0.00010260
He      -1.90339138       6.00088573       2.87947572  T       0.00004291       0.00013931       0.00000848
H        0.61024829       0.29959366       0.55266110  T       0.00009501       0.00010426      -0.00002023
H        0.85770933       0.81903798       0.31956511  T      -0.00024361      -0.00047200       0.00015159
Li      -2.77300556       0.19131792       2.57758844  T      -0.00011840      -0.00006987       0.00034408
He      -3.24160135       1.76986267       5.59738737  T      -0.00017741       0.00011712       0.00003144
He      -3.25146727      -2.48758750       3.55559727  T       0.00029809      -0.00005391      -0.00024852
H        0.99165319       1.06567382      -0.54943234  T       0.00037621      -0.00036639      -0.00009709
He       1.62590712      -3.05706950       4.52092803  T      -0.00012568      -0.00016321       0.00011066
He      -2.95112407      -4.10838209       0.40102456  T       0.00028326       0.00004604      -0.00003060
Li      -3.75039254       2.12639366      -1.06768153  T      -0.00005621       0.00016189       0.00022987
Li      -2.68787229       0.79807938       2.70166826  T      -0.00051218       0.00007945       0.00014206
Li      -3.45653469       1.79777346       1.35254937  T       0.00002872       0.00030505       0.00020585
He      -4.31650179       1.25633976       3.89436754  T      -0.00019327      -0.00005999       0.00014891
H        0.64428365       1.86184884      -0.31478104  T       0.00015490       0.00005940       0.00000927
Li      -3.33478634       3.19177764       0.46949978  T       0.00018340       0.00026990       0.00008853
He      -2.86729126       5.22040668      -3.73504103  T       0.00011375       0.00029771      -0.00009025
H        0.16965043       1.23657640      -1.40693124  T       0.00036661      -0.00059514       0.00001975
He      -4.12251603       2.19115246       3.73407683  T       0.00034162      -0.00007330       0.00000503
H        0.26771449       0.49192937       0.30567083  T       0.00016280       0.00007488       0.00022273
H        0.64464198       1.63813828      -0.29421332  T      -0.00013076      -0.00021177      -0.00028355
Li      -3.52060170       0.01052974       1.37956280  T       0.00032181      -0.00003273       0.00019157
H       -0.15717023       1.82801316      -0.83731635  T       0.00014346      -0.00002874       0.00004208
H        0.18488177       1.35347492      -0.58540042  T       0.00013187      -0.00002552       0.00000134
Li      -3.26134113       1.70200634       1.84790997  T      -0.00027841      -0.00004145      -0.00000283
H        0.70773674       0.63802565      -0.13435263  T      -0.00003509      -0.00005852      -0.00023508
H        0.52797154       1.68731251      -0.42091890  T       0.00027777       0.00011242      -0.00019960
He       0.68821559      -2.27128412       4.03024379  T       0.00024952       0.00032202       0.00052569
He      -3.77576555       4.42483422       3.94062112  T      -0.00031456      -0.00051612      -0.00004467
Li      -2.08806965       1.09726436       3.12790079  T      -0.00018770       0.00031999       0.00034942
He      -4.51358821      -1.05571761      -3.10014018  T      -0.00019501      -0.00011735      -0.00059035
He      -1.55396612      -2.27927768       4.81791935  T       0.00031846      -0.00014991      -0.00020321
He      -4.96826412       3.83973944       2.61463751  T      -0.00028142      -0.00036214       0.00033380
He      -3.80355351      -3.31740782      -1.93221586  T       0.00043858       0.00044448       0.00021187
He      -3.74355531       3.82419855       4.71060129  T      -0.00033225       0.00022045       0.00005746
H        0.55379246       0.73743739      -0.79764762  T       0.00016912       0.00027497      -0.00002902
Li      -3.55835783      -0.55243429       1.15075494  T      -0.00016543       0.00001052       0.00015528
H        1.02933428       0.92705918      -0.17855565  T       0.00011679      -0.00001246      -0.00014129
Li      -3.36950392      -1.50692282       0.01286392  T      -0.00002231       0.00010707       0.00015330
50
Properties=species:S:1:pos:R:3:move_mask:L:1:forces:R:3 energy=147.68751210984976 pbc="F F F"
H        0.70558588       0.98067513      -0.58939131  F       0.29881520       0.33565597       0.41920576
H        1.05318014       1.67293960       0.53241136  F      -2.93540706      -3.14403072      -3.84898819
H       -0.60320544      -0.05754640      -1.54971299  F       2.63521794       2.80804630       3.42786352
Li      -3.49415532      -0.03542543      -0.54742946  T       0.00037879       0.00012023      -0.00015807
H        0.31705720       0.73085126      -1.04106706  T       0.00037874       0.00002102      -0.00005678
H        0.67408534       1.85754037       0.04878389  T       0.00010014      -0.00024737      -0.00010801
H        1.04252129       1.03748025      -0.22891745  T       0.00013729       0.00005263       0.00004074
Li      -1.89632174      -1.79232592       1.41640530  T      -0.00018981       0.00000296      -0.00015190
H        0.92284613       1.37891153       0.61392599  T      -0.00042088      -0.00019740       0.00038042
He       0.29074894      -2.86044211       4.70592668  T      -0.00017966      -0.00019730       0.00017686
Li      -2.53837367       0.01159392       2.58114228  T      -0.00004916       0.00014087       0.00037452
Li      -2.46080769       2.70879460       2.18073795  T      -0.00002650       0.00057637      -0.00010260
He      -1.90339138       6.00088573       2.87947572  T       0.00004291       0.00013931       0.00000848
H        0.61024829       0.29959366       0.55266110  T       0.00009501       0.00010426      -0.00002023
H        0.85770933       0.81903798       0.31956511  T      -0.00024361      -0.00047200       0.00015159
Li      -2.77300556       0.19131792       2.57758844  T      -0.00011840      -0.00006987       0.00034408
He      -3.24160135       1.76986267       5.59738737  T      -0.00017741       0.00011712       0.00003144
He      -3.25146727      -2.48758750       3.55559727  T       0.00029809      -0.00005391      -0.00024852
H        0.99165319       1.06567382      -0.54943234  T       0.00037621      -0.00036639      -0.00009709
He       1.62590712      -3.05706950       4.52092803  T      -0.00012568      -0.00016321       0.00011066
He      -2.95112407      -4.10838209       0.40102456  T       0.00028326       0.00004604      -0.00003060
Li      -3.75039254       2.12639366      -1.06768153  T      -0.00005621       0.00016189       0.00022987
Li      -2.68787229       0.79807938       2.70166826  T      -0.00051218       0.00007945       0.00014206
Li      -3.45653469       1.79777346       1.35254937  T       0.00002872       0.00030505       0.00020585
He      -4.31650179       1.25633976       3.89436754  T      -0.00019327      -0.00005999       0.00014891
H        0.64428365       1.86184884      -0.31478104  T       0.00015490       0.00005940       0.00000927
Li      -3.33478634       3.19177764       0.46949978  T       0.00018340       0.00026990       0.00008853
He      -2.86729126       5.22040668      -3.73504103  T       0.00011375       0.00029771      -0.00009025
H        0.16965043       1.23657640      -1.40693124  T       0.00036661      -0.00059514       0.00001975
He      -4.12251603       2.19115246       3.73407683  T       0.00034162      -0.00007330       0.00000503
H        0.26771449       0.49192937       0.30567083  T       0.00016280       0.00007488       0.00022273
H        0.64464198       1.63813828      -0.29421332  T      -0.00013076      -0.00021177      -0.00028355
Li      -3.52060170       0.01052974       1.37956280  T       0.00032181      -0.00003273       0.00019157
H       -0.15717023       1.82801316      -0.83731635  T       0.00014346      -0.00002874       0.00004208
H        0.18488177       1.35347492      -0.58540042  T       0.00013187      -0.00002552       0.00000134
Li      -3.26134113       1.70200634       1.84790997  T      -0.00027841      -0.00004145      -0.00000283
H        0.70773674       0.63802565      -0.13435263  T      -0.00003509      -0.00005852      -0.00023508
H        0.52797154       1.68731251      -0.42091890  T       0.00027777       0.00011242      -0.00019960
He       0.68821559      -2.27128412       4.03024379  T       0.00024952       0.00032202       0.00052569
He      -3.77576555       4.42483422       3.94062112  T      -0.00031456      -0.00051612      -0.00004467
Li      -2.08806965       1.09726436       3.12790079  T      -0.00018770       0.00031999       0.00034942
He      -4.51358821      -1.05571761      -3.10014018  T      -0.00019501      -0.00011735      -0.00059035
He      -1.55396612      -2.27927768       4.81791935  T       0.00031846      -0.00014991      -0.00020321
He      -4.96826412       3.83973944       2.61463751  T      -0.00028142      -0.00036214       0.00033380
He      -3.80355351      -3.31740782      -1.93221586  T       0.00043858       0.00044448       0.00021187
He      -3.74355531       3.82419855       4.71060129  T      -0.00033225       0.00022045       0.00005746
H        0.55379246       0.73743739      -0.79764762  T       0.00016912       0.00027497      -0.00002902
Li      -3.55835783      -0.55243429       1.15075494  T      -0.00016543       0.00001052       0.00015528
H        1.02933428       0.92705918      -0.17855565  T       0.00011679      -0.00001246      -0.00014129
Li      -3.36950392      -1.50692282       0.01286392  T      -0.00002231       0.00010707       0.00015330
50
Properties=species:S:1:pos:R:3:move_mask:L:1:forces:R:3 energy=148.48953866664885 pbc="F F F"
H        0.70558588       0.98067513      -0.58939131  F       0.30966946       0.50229937       0.76259732
H        1.05318014       1.67293960       0.53241136  F      -3.71102643      -4.07867905      -5.09017976
H       -0.60320544      -0.05754640      -1.54971299  F       3.39870741       3.57875242       4.32626780
Li      -3.24291869      -0.69728598      -0.63618426  T       0.00070383       0.00031371      -0.00010881
H        0.30602617       0.68989869      -0.93128058  T      -0.00048575      -0.00049182       0.00022244
H        0.66012369       1.79078997       0.15818362  T       0.00046077      -0.00006291       0.00040464
H        1.12306537       0.84850039      -0.03439055  T       0.00002696      -0.00026047      -0.00012088
Li      -1.42972732      -2.19970032       1.18332897  T       0.00021993       0.00009902      -0.00018013
H        0.99125544       1.14009510       0.47671668  T       0.00017828      -0.00029747      -0.00006313
He       1.21449390      -3.52066549       4.04907341  T       0.00032036      -0.00011369       0.00001162
Li      -2.09234021      -0.57781569       2.74273135  T       0.00021750      -0.00013763      -0.00005434
Li      -2.20268818       2.29551590       2.69710671  T      -0.00035680       0.00022189      -0.00031298
He      -1.64867239       5.44996041       3.85028050  T       0.00008983      -0.00006683      -0.00024385
H        0.42050130       1.11689140      -0.40849465  T      -0.00017351      -0.00020174       0.00000845
H        0.91843521       0.78697361       0.34625510  T       0.00035292      -0.00004758       0.00021729
Li      -2.38096119      -0.44301534       2.70124284  T       0.00014599      -0.00008296       0.00054875
He      -1.96766522      -0.15601377       5.91327173  T      -0.00038452      -0.00010259      -0.00009753
He      -2.44786341      -3.22553448       3.33865123  T       0.00011883       0.00037225      -0.00076698
H        0.96007298       1.21354711      -0.48882276  T      -0.00013046       0.00000265      -0.00005030
He       2.59459645      -3.48870668       3.62865861  T       0.00016620      -0.00024477       0.00060839
He      -2.61711185      -4.33076315      -0.10915178  T       0.00016962       0.00020576       0.00046208
Li      -3.91891009       2.10528141      -0.78005525  T      -0.00043015      -0.00001712      -0.00002052
Li      -2.27518714       0.17787330       2.93676010  T       0.00007315       0.00036974      -0.00002940
Li      -3.33737312       1.35369827       1.68883724  T      -0.00023871      -0.00049988       0.00012155
He      -3.94646432       0.54013588       4.23344787  T       0.00045028      -0.00009165       0.00053816
H        0.66392481       1.70233932      -0.22785312  T       0.00013494      -0.00048224      -0.00004908
Li      -3.22172767       3.00862609       1.01051168  T      -0.00032502      -0.00011645       0.00025145
He      -2.92282210       5.49230054      -2.94048450  T       0.00015786       0.00031560      -0.00010903
H        0.12477509       1.20494099      -1.21771048  T       0.00018934      -0.00052280      -0.00040634
He      -3.76809322       2.18540517       4.07385218  T      -0.00014759       0.00004538       0.00027049
H        0.24758096       0.48469349       0.22513517  T       0.00050262      -0.00016162      -0.00014346
H        0.54482795       1.67615890      -0.17001802  T       0.00000042      -0.00004846       0.00037098
Li      -3.33149552      -0.42840412       1.52524930  T       0.00066148      -0.00017261      -0.00001450
H       -0.12428590       1.72871505      -0.71147447  T       0.00024984       0.00041524      -0.00027956
H        0.11907012       1.34716271      -0.38617685  T      -0.00001285       0.00042195       0.00002489
Li      -2.99635785       1.24613896       2.20933409  T       0.00005844      -0.00038765      -0.00037708
H        0.91011722       0.29545091      -0.05775761  T      -0.00057608       0.00031271       0.00030376
H        0.67813091       1.40896119      -0.38183526  T       0.00021158      -0.00067778       0.00028059
He       1.32743477      -2.90535527       3.58367602  T      -0.00062134      -0.00044894      -0.00005218
He      -3.50850719       3.51567908       4.72911317  T      -0.00005184      -0.00020557      -0.00047494
Li      -1.60311910       0.48736149       3.37601602  T      -0.00043412      -0.00024652      -0.00025778
He      -4.42238187      -0.93890681      -3.06826656  T       0.00021435       0.00027329      -0.00059583
He      -0.80952319      -3.09752305       4.47385016  T      -0.00007003       0.00017931       0.00034409
He      -4.61955864       3.20849673       3.40687647  T       0.00042072       0.00017876      -0.00014676
He      -3.65916993      -3.30273944      -2.15774636  T       0.00040069       0.00021345       0.00017759
He      -3.22650765       2.94818224       5.40767714  T      -0.00024791      -0.00031772       0.00033103
H        0.50709668       0.72418767      -0.71376561  T       0.00014933       0.00016990       0.00045094
Li      -3.32156688      -0.96659940       1.25801545  T       0.00014777      -0.00001091      -0.00024422
H        1.07038814       0.88240022      -0.27225727  T      -0.00011879      -0.00010750       0.00006238
Li      -3.11224235      -1.71090576      -0.07404095  T       0.00026120       0.00014252       0.00050269
50
Properties=species:S:1:pos:R:3:move_mask:L:1:forces:R:3 energy=148.48953866664885 pbc="F F F"
H        0.70558588       0.98067513      -0.58939131  F       0.30966946       0.50229937       0.76259732
H        1.05318014       1.67293960       0.53241136  F      -3.71102643      -4.07867905      -5.09017976
H       -0.60320544      -0.05754640      -1.54971299  F       3.39870741       3.57875242       4.32626780
Li      -3.24291869      -0.69728598      -0.63618426  T       0.00070383       0.00031371      -0.00010881
H        0.30602617       0.68989869      -0.93128058  T      -0.00048575      -0.00049182       0.00022244
H        0.66012369       1.79078997       0.15818362  T       0.00046077      -0.00006291       0.00040464
H        1.12306537       0.84850039      -0.03439055  T       0.00002696      -0.00026047      -0.00012088
Li      -1.42972732      -2.19970032       1.18332897  T       0.00021993       0.00009902      -0.00018013
H        0.99125544       1.14009510       0.47671668  T       0.00017828      -0.00029747      -0.00006313
He       1.21449390      -3.52066549       4.04907341  T       0.00032036      -0.00011369       0.00001162
Li      -2.09234021      -0.57781569       2.74273135  T       0.00021750      -0.00013763      -0.00005434
Li      -2.20268818       2.29551590       2.69710671  T      -0.00035680       0.00022189      -0.00031298
He      -1.64867239       5.44996041       3.85028050  T       0.00008983      -0.00006683      -0.00024385
H        0.42050130       1.11689140      -0.40849465  T      -0.00017351      -0.00020174       0.00000845
H        0.91843521       0.78697361       0.34625510  T       0.00035292      -0.00004758       0.00021729
Li      -2.38096119      -0.44301534       2.70124284  T       0.00014599      -0.00008296       0.00054875
He      -1.96766522      -0.15601377       5.91327173  T      -0.00038452      -0.00010259      -0.00009753
He      -2.44786341      -3.22553448       3.33865123  T       0.00011883       0.00037225      -0.00076698
H        0.96007298       1.21354711      -0.48882276  T      -0.00013046       0.00000265      -0.00005030
He       2.59459645      -3.48870668       3.62865861  T       0.00016620      -0.00024477       0.00060839
He      -2.61711185      -4.33076315      -0.10915178  T       0.00016962       0.00020576       0.00046208
Li      -3.91891009       2.10528141      -0.78005525  T      -0.00043015      -0.00001712      -0.00002052